# vtk DataFile Version 2.0
FEA Results
ASCII
DATASET UNSTRUCTURED_GRID
POINTS 8 float
0.1414214 0.0 0
0.5 -0.5 0
0.5 0.5 0
0.0 -0.1414214 0
-0.5 -0.5 0
-0.1414214 0.0 0
-0.5 0.5 0
0.0 0.1414214 0
CELLS 8 40
4 0 1 2 2
4 3 1 0 0
4 3 4 1 1
4 5 4 3 3
4 5 6 4 4
4 7 6 5 5
4 7 2 6 6
4 0 2 7 7
CELL_TYPES 8
9
9
9
9
9
9
9
9
POINT_DATA 8
SCALARS Nodal_Displacement float
LOOKUP_TABLE default
0.1414214
0.5
0.5
0.0
-0.5
-0.1414214
-0.5
0.0
